<?xml version="1.0" encoding="UTF-8"?>

<!-- generated on 2026-07-02T14:01:18.214539+09:00 by Eclipse SUMO sumo 1.26.0
<sumoConfiguration xmlns:xsi="http://www.w3.org/2001/XMLSchema-instance" xsi:noNamespaceSchemaLocation="http://sumo.dlr.de/xsd/sumoConfiguration.xsd">

    <input>
        <net-file value="./tenjin_one_way.net.xml"/>
        <route-files value="./traffic.rou.xml"/>
        <junction-taz value="true"/>
    </input>

    <output>
        <tripinfo-output value="tripinfo_tenjin_one_way.xml"/>
    </output>

    <time>
        <begin value="0"/>
        <end value="10800"/>
    </time>

    <traci_server>
        <remote-port value="58477"/>
    </traci_server>

    <gui_only>
        <start value="true"/>
    </gui_only>

</sumoConfiguration>
-->

<tripinfos xmlns:xsi="http://www.w3.org/2001/XMLSchema-instance" xsi:noNamespaceSchemaLocation="http://sumo.dlr.de/xsd/tripinfo_file.xsd">
    <tripinfo id="flow_e1_to_e2.0" depart="11.00" departLane="374632640#13_0" departPos="5.10" departSpeed="0.00" departDelay="0.00" arrival="34.00" arrivalLane="E23_0" arrivalPos="39.08" arrivalSpeed="13.67" duration="23.00" routeLength="187.70" waitingTime="0.00" waitingCount="0" stopTime="0.00" timeLoss="9.25" rerouteNo="1" devices="tripinfo_flow_e1_to_e2.0 routing_flow_e1_to_e2.0" vType="car" speedFactor="1.01" vaporized=""/>
    <tripinfo id="flow_e4_to_e3.0" depart="12.00" departLane="-E22_0" departPos="5.10" departSpeed="0.00" departDelay="0.00" arrival="40.00" arrivalLane="E30_1" arrivalPos="196.31" arrivalSpeed="14.47" duration="28.00" routeLength="347.50" waitingTime="0.00" waitingCount="0" stopTime="0.00" timeLoss="4.20" rerouteNo="1" devices="tripinfo_flow_e4_to_e3.0 routing_flow_e4_to_e3.0" vType="car" speedFactor="1.08" vaporized=""/>
    <tripinfo id="flow_e2_to_e3.0" depart="18.00" departLane="728058747#0_0" departPos="5.10" departSpeed="0.00" departDelay="0.00" arrival="73.00" arrivalLane="E26_0" arrivalPos="197.78" arrivalSpeed="14.23" duration="55.00" routeLength="411.22" waitingTime="15.00" waitingCount="1" stopTime="0.00" timeLoss="29.08" rerouteNo="1" devices="tripinfo_flow_e2_to_e3.0 routing_flow_e2_to_e3.0" vType="car" speedFactor="1.03" vaporized=""/>
    <tripinfo id="flow_e4_to_e3.1" depart="43.00" departLane="-E22_0" departPos="5.10" departSpeed="0.00" departDelay="0.00" arrival="76.00" arrivalLane="E30_0" arrivalPos="196.31" arrivalSpeed="12.95" duration="33.00" routeLength="347.50" waitingTime="0.00" waitingCount="0" stopTime="0.00" timeLoss="4.68" rerouteNo="1" devices="tripinfo_flow_e4_to_e3.1 routing_flow_e4_to_e3.1" vType="car" speedFactor="0.94" vaporized=""/>
    <tripinfo id="flow_e5_to_e3.0" depart="53.00" departLane="728427983#1_0" departPos="3.32" departSpeed="0.00" departDelay="0.00" arrival="108.00" arrivalLane="E26_0" arrivalPos="197.78" arrivalSpeed="14.46" duration="55.00" routeLength="810.61" waitingTime="0.00" waitingCount="0" stopTime="0.00" timeLoss="14.95" rerouteNo="1" devices="tripinfo_flow_e5_to_e3.0 routing_flow_e5_to_e3.0" vType="car" speedFactor="1.12" vaporized=""/>
    <tripinfo id="flow_p12_to_e5.0" depart="48.00" departLane="-E0_0" departPos="5.10" departSpeed="0.00" departDelay="0.00" arrival="110.00" arrivalLane="179084398#0_2" arrivalPos="7.13" arrivalSpeed="22.28" duration="62.00" routeLength="443.60" waitingTime="18.00" waitingCount="1" stopTime="0.00" timeLoss="38.48" rerouteNo="1" devices="tripinfo_flow_p12_to_e5.0 routing_flow_p12_to_e5.0" vType="car" speedFactor="1.03" vaporized=""/>
    <tripinfo id="flow_p2_to_e4.0" depart="59.00" departLane="E1_0" departPos="1.89" departSpeed="0.00" departDelay="0.00" arrival="110.00" arrivalLane="E22_0" arrivalPos="22.13" arrivalSpeed="13.35" duration="51.00" routeLength="609.46" waitingTime="0.00" waitingCount="0" stopTime="0.00" timeLoss="12.83" rerouteNo="1" devices="tripinfo_flow_p2_to_e4.0 routing_flow_p2_to_e4.0" vType="car" speedFactor="0.99" vaporized=""/>
    <tripinfo id="flow_e1_to_e3.0" depart="1.00" departLane="374632640#13_0" departPos="5.10" departSpeed="0.00" departDelay="0.00" arrival="119.00" arrivalLane="E26_0" arrivalPos="197.78" arrivalSpeed="13.80" duration="118.00" routeLength="564.15" waitingTime="63.00" waitingCount="2" stopTime="0.00" timeLoss="87.94" rerouteNo="1" devices="tripinfo_flow_e1_to_e3.0 routing_flow_e1_to_e3.0" vType="car" speedFactor="1.06" vaporized=""/>
    <tripinfo id="flow_e7_to_e8.1" depart="66.00" departLane="-204408420#4_0" departPos="5.10" departSpeed="0.00" departDelay="0.00" arrival="131.00" arrivalLane="E25_0" arrivalPos="0.86" arrivalSpeed="11.72" duration="65.00" routeLength="829.72" waitingTime="7.00" waitingCount="1" stopTime="0.00" timeLoss="27.86" rerouteNo="1" devices="tripinfo_flow_e7_to_e8.1 routing_flow_e7_to_e8.1" vType="car" speedFactor="0.88" vaporized=""/>
    <tripinfo id="flow_e7_to_e8.0" depart="37.00" departLane="-204408420#4_0" departPos="5.10" departSpeed="0.00" departDelay="0.00" arrival="132.00" arrivalLane="E25_0" arrivalPos="0.86" arrivalSpeed="13.52" duration="95.00" routeLength="829.72" waitingTime="37.00" waitingCount="1" stopTime="0.00" timeLoss="64.28" rerouteNo="1" devices="tripinfo_flow_e7_to_e8.0 routing_flow_e7_to_e8.0" vType="car" speedFactor="1.05" vaporized=""/>
    <tripinfo id="flow_e8_to_e2.0" depart="50.00" departLane="E24_0" departPos="3.67" departSpeed="0.00" departDelay="0.00" arrival="137.00" arrivalLane="E23_0" arrivalPos="39.08" arrivalSpeed="13.54" duration="87.00" routeLength="907.87" waitingTime="21.00" waitingCount="2" stopTime="0.00" timeLoss="51.39" rerouteNo="1" devices="tripinfo_flow_e8_to_e2.0 routing_flow_e8_to_e2.0" vType="car" speedFactor="1.05" vaporized=""/>
    <tripinfo id="flow_e5_to_e7.0" depart="38.00" departLane="728427983#1_0" departPos="3.32" departSpeed="0.00" departDelay="0.00" arrival="141.00" arrivalLane="204408420#4_0" arrivalPos="97.04" arrivalSpeed="24.36" duration="103.00" routeLength="825.07" waitingTime="35.00" waitingCount="1" stopTime="0.00" timeLoss="62.72" rerouteNo="1" devices="tripinfo_flow_e5_to_e7.0 routing_flow_e5_to_e7.0" vType="car" speedFactor="0.89" vaporized=""/>
    <tripinfo id="flow_e3_to_e6.0" depart="45.00" departLane="E20_0" departPos="5.10" departSpeed="0.00" departDelay="0.00" arrival="141.00" arrivalLane="-28302398#1_0" arrivalPos="7.86" arrivalSpeed="18.86" duration="96.00" routeLength="1009.26" waitingTime="12.00" waitingCount="1" stopTime="0.00" timeLoss="37.42" rerouteNo="1" devices="tripinfo_flow_e3_to_e6.0 routing_flow_e3_to_e6.0" vType="car" speedFactor="0.86" vaporized=""/>
    <tripinfo id="flow_e4_to_e7.0" depart="48.00" departLane="-E22_0" departPos="5.10" departSpeed="0.00" departDelay="0.00" arrival="143.00" arrivalLane="204408420#4_0" arrivalPos="97.04" arrivalSpeed="28.38" duration="95.00" routeLength="1140.46" waitingTime="19.00" waitingCount="1" stopTime="0.00" timeLoss="45.20" rerouteNo="1" devices="tripinfo_flow_e4_to_e7.0 routing_flow_e4_to_e7.0" vType="car" speedFactor="1.09" vaporized=""/>
    <tripinfo id="flow_e1_to_e8.0" depart="74.00" departLane="374632640#13_0" departPos="5.10" departSpeed="0.00" departDelay="0.00" arrival="147.00" arrivalLane="E25_0" arrivalPos="0.86" arrivalSpeed="15.45" duration="73.00" routeLength="830.49" waitingTime="21.00" waitingCount="1" stopTime="0.00" timeLoss="44.45" rerouteNo="1" devices="tripinfo_flow_e1_to_e8.0 routing_flow_e1_to_e8.0" vType="car" speedFactor="1.16" vaporized=""/>
    <tripinfo id="flow_e4_to_p1.0" depart="106.00" departLane="-E22_0" departPos="5.10" departSpeed="0.00" departDelay="0.00" arrival="147.00" arrivalLane="E2_0" arrivalPos="0.20" arrivalSpeed="15.13" duration="41.00" routeLength="573.92" waitingTime="0.00" waitingCount="0" stopTime="0.00" timeLoss="11.35" rerouteNo="1" devices="tripinfo_flow_e4_to_p1.0 routing_flow_e4_to_p1.0" vType="car" speedFactor="1.18" vaporized=""/>
    <tripinfo id="flow_e4_to_e2.0" depart="112.00" departLane="-E22_0" departPos="5.10" departSpeed="0.00" departDelay="0.00" arrival="164.00" arrivalLane="E23_1" arrivalPos="39.08" arrivalSpeed="15.52" duration="52.00" routeLength="839.58" waitingTime="0.00" waitingCount="0" stopTime="0.00" timeLoss="11.16" rerouteNo="1" devices="tripinfo_flow_e4_to_e2.0 routing_flow_e4_to_e2.0" vType="car" speedFactor="1.15" vaporized=""/>
    <tripinfo id="flow_e7_to_e5.0" depart="87.00" departLane="-204408420#4_0" departPos="5.10" departSpeed="0.00" departDelay="0.00" arrival="166.00" arrivalLane="179084398#0_2" arrivalPos="7.13" arrivalSpeed="21.38" duration="79.00" routeLength="843.73" waitingTime="12.00" waitingCount="1" stopTime="0.00" timeLoss="42.99" rerouteNo="1" devices="tripinfo_flow_e7_to_e5.0 routing_flow_e7_to_e5.0" vType="car" speedFactor="1.01" vaporized=""/>
    <tripinfo id="flow_e8_to_p5.0" depart="124.00" departLane="E24_0" departPos="3.67" departSpeed="0.00" departDelay="0.00" arrival="187.00" arrivalLane="E10_0" arrivalPos="24.83" arrivalSpeed="13.10" duration="63.00" routeLength="442.80" waitingTime="30.00" waitingCount="1" stopTime="0.00" timeLoss="45.48" rerouteNo="1" devices="tripinfo_flow_e8_to_p5.0 routing_flow_e8_to_p5.0" vType="car" speedFactor="1.02" vaporized=""/>
    <tripinfo id="flow_e5_to_e4.0" depart="151.00" departLane="728427983#1_0" departPos="3.32" departSpeed="0.00" departDelay="0.00" arrival="190.00" arrivalLane="E22_0" arrivalPos="22.13" arrivalSpeed="14.77" duration="39.00" routeLength="501.24" waitingTime="0.00" waitingCount="0" stopTime="0.00" timeLoss="10.70" rerouteNo="1" devices="tripinfo_flow_e5_to_e4.0 routing_flow_e5_to_e4.0" vType="car" speedFactor="1.10" vaporized=""/>
    <tripinfo id="flow_e5_to_e1.0" depart="112.00" departLane="728427983#1_0" departPos="3.32" departSpeed="0.00" departDelay="0.00" arrival="192.00" arrivalLane="-374632640#13_0" arrivalPos="41.70" arrivalSpeed="21.62" duration="80.00" routeLength="646.11" waitingTime="23.00" waitingCount="1" stopTime="0.00" timeLoss="49.19" rerouteNo="1" devices="tripinfo_flow_e5_to_e1.0 routing_flow_e5_to_e1.0" vType="car" speedFactor="1.01" vaporized=""/>
    <tripinfo id="flow_e4_to_e6.0" depart="145.00" departLane="-E22_0" departPos="5.10" departSpeed="0.00" departDelay="0.00" arrival="199.00" arrivalLane="-28302398#1_0" arrivalPos="7.86" arrivalSpeed="20.94" duration="54.00" routeLength="764.26" waitingTime="0.00" waitingCount="0" stopTime="0.00" timeLoss="13.46" rerouteNo="1" devices="tripinfo_flow_e4_to_e6.0 routing_flow_e4_to_e6.0" vType="car" speedFactor="0.97" vaporized=""/>
    <tripinfo id="flow_e1_to_e7.0" depart="7.00" departLane="374632640#13_0" departPos="5.10" departSpeed="0.00" departDelay="0.00" arrival="203.00" arrivalLane="204408420#4_0" arrivalPos="97.04" arrivalSpeed="25.31" duration="196.00" routeLength="1106.36" waitingTime="107.00" waitingCount="4" stopTime="0.00" timeLoss="149.18" rerouteNo="1" devices="tripinfo_flow_e1_to_e7.0 routing_flow_e1_to_e7.0" vType="car" speedFactor="0.94" vaporized=""/>
    <tripinfo id="flow_p6_to_e5.0" depart="68.00" departLane="E11_0" departPos="5.10" departSpeed="0.00" departDelay="0.00" arrival="203.00" arrivalLane="179084398#0_2" arrivalPos="7.13" arrivalSpeed="19.96" duration="135.00" routeLength="701.59" waitingTime="69.00" waitingCount="1" stopTime="0.00" timeLoss="95.84" rerouteNo="1" devices="tripinfo_flow_p6_to_e5.0 routing_flow_p6_to_e5.0" vType="car" speedFactor="0.94" vaporized=""/>
    <tripinfo id="flow_e4_to_p7.0" depart="92.00" departLane="-E22_0" departPos="5.10" departSpeed="0.00" departDelay="0.00" arrival="206.00" arrivalLane="E32_0" arrivalPos="22.25" arrivalSpeed="12.44" duration="114.00" routeLength="998.26" waitingTime="38.00" waitingCount="1" stopTime="0.00" timeLoss="58.63" rerouteNo="1" devices="tripinfo_flow_e4_to_p7.0 routing_flow_e4_to_p7.0" vType="car" speedFactor="0.97" vaporized=""/>
    <tripinfo id="flow_p10_to_e6.0" depart="72.00" departLane="-E8_0" departPos="5.10" departSpeed="0.00" departDelay="0.00" arrival="211.00" arrivalLane="-28302398#1_1" arrivalPos="7.86" arrivalSpeed="20.13" duration="139.00" routeLength="737.85" waitingTime="70.00" waitingCount="2" stopTime="0.00" timeLoss="102.22" rerouteNo="1" devices="tripinfo_flow_p10_to_e6.0 routing_flow_p10_to_e6.0" vType="car" speedFactor="0.94" vaporized=""/>
    <tripinfo id="flow_e4_to_e6.1" depart="152.00" departLane="-E22_0" departPos="5.10" departSpeed="0.00" departDelay="0.00" arrival="211.00" arrivalLane="-28302398#1_0" arrivalPos="7.86" arrivalSpeed="18.98" duration="59.00" routeLength="764.26" waitingTime="0.00" waitingCount="0" stopTime="0.00" timeLoss="14.08" rerouteNo="1" devices="tripinfo_flow_e4_to_e6.1 routing_flow_e4_to_e6.1" vType="car" speedFactor="0.90" vaporized=""/>
    <tripinfo id="flow_e1_to_e6.0" depart="102.00" departLane="374632640#13_0" departPos="5.10" departSpeed="0.00" departDelay="0.00" arrival="213.00" arrivalLane="-28302398#1_1" arrivalPos="7.86" arrivalSpeed="22.92" duration="111.00" routeLength="665.60" waitingTime="48.00" waitingCount="3" stopTime="0.00" timeLoss="83.93" rerouteNo="1" devices="tripinfo_flow_e1_to_e6.0 routing_flow_e1_to_e6.0" vType="car" speedFactor="1.13" vaporized=""/>
    <tripinfo id="flow_e6_to_e8.0" depart="105.00" departLane="28302398#1_0" departPos="5.10" departSpeed="0.00" departDelay="0.00" arrival="215.00" arrivalLane="E25_0" arrivalPos="0.86" arrivalSpeed="11.93" duration="110.00" routeLength="1107.63" waitingTime="30.00" waitingCount="1" stopTime="0.00" timeLoss="60.84" rerouteNo="1" devices="tripinfo_flow_e6_to_e8.0 routing_flow_e6_to_e8.0" vType="car" speedFactor="0.93" vaporized=""/>
    <tripinfo id="flow_e8_to_e1.0" depart="99.00" departLane="E24_0" departPos="3.67" departSpeed="0.00" departDelay="0.00" arrival="228.00" arrivalLane="-374632640#13_0" arrivalPos="41.70" arrivalSpeed="18.12" duration="129.00" routeLength="818.42" waitingTime="55.00" waitingCount="3" stopTime="0.00" timeLoss="92.62" rerouteNo="1" devices="tripinfo_flow_e8_to_e1.0 routing_flow_e8_to_e1.0" vType="car" speedFactor="0.87" vaporized=""/>
    <tripinfo id="flow_p8_to_e2.0" depart="100.00" departLane="-E9_0" departPos="5.10" departSpeed="0.00" departDelay="0.00" arrival="229.00" arrivalLane="E23_0" arrivalPos="39.08" arrivalSpeed="11.96" duration="129.00" routeLength="742.78" waitingTime="58.00" waitingCount="3" stopTime="0.00" timeLoss="90.47" rerouteNo="1" devices="tripinfo_flow_p8_to_e2.0 routing_flow_p8_to_e2.0" vType="car" speedFactor="0.95" vaporized=""/>
    <tripinfo id="flow_p8_to_e4.0" depart="31.00" departLane="-E9_0" departPos="5.10" departSpeed="0.00" departDelay="0.00" arrival="230.00" arrivalLane="E22_0" arrivalPos="22.13" arrivalSpeed="10.89" duration="199.00" routeLength="990.23" waitingTime="103.00" waitingCount="2" stopTime="0.00" timeLoss="134.18" rerouteNo="1" devices="tripinfo_flow_p8_to_e4.0 routing_flow_p8_to_e4.0" vType="car" speedFactor="0.83" vaporized=""/>
    <tripinfo id="flow_e6_to_e7.0" depart="164.00" departLane="28302398#1_0" departPos="5.10" departSpeed="0.00" departDelay="0.00" arrival="230.00" arrivalLane="204408420#4_0" arrivalPos="97.04" arrivalSpeed="28.26" duration="66.00" routeLength="609.95" waitingTime="20.00" waitingCount="1" stopTime="0.00" timeLoss="43.32" rerouteNo="1" devices="tripinfo_flow_e6_to_e7.0 routing_flow_e6_to_e7.0" vType="car" speedFactor="1.09" vaporized=""/>
    <tripinfo id="flow_e8_to_e6.0" depart="95.00" departLane="E24_0" departPos="3.67" departSpeed="0.00" departDelay="0.00" arrival="232.00" arrivalLane="-28302398#1_1" arrivalPos="7.86" arrivalSpeed="19.76" duration="137.00" routeLength="1127.45" waitingTime="52.00" waitingCount="1" stopTime="0.00" timeLoss="84.01" rerouteNo="1" devices="tripinfo_flow_e8_to_e6.0 routing_flow_e8_to_e6.0" vType="car" speedFactor="0.89" vaporized=""/>
    <tripinfo id="flow_p2_to_e1.0" depart="118.00" departLane="E1_0" departPos="1.89" departSpeed="0.00" departDelay="0.00" arrival="236.00" arrivalLane="-374632640#13_0" arrivalPos="41.70" arrivalSpeed="22.64" duration="118.00" routeLength="841.96" waitingTime="46.00" waitingCount="3" stopTime="0.00" timeLoss="84.04" rerouteNo="1" devices="tripinfo_flow_p2_to_e1.0 routing_flow_p2_to_e1.0" vType="car" speedFactor="1.17" vaporized=""/>
    <tripinfo id="flow_e7_to_e6.0" depart="159.00" departLane="-204408420#4_0" departPos="5.10" departSpeed="0.00" departDelay="0.00" arrival="239.00" arrivalLane="-28302398#1_1" arrivalPos="7.86" arrivalSpeed="22.09" duration="80.00" routeLength="621.17" waitingTime="27.00" waitingCount="2" stopTime="0.00" timeLoss="54.65" rerouteNo="1" devices="tripinfo_flow_e7_to_e6.0 routing_flow_e7_to_e6.0" vType="car" speedFactor="1.03" vaporized=""/>
    <tripinfo id="flow_e3_to_e4.0" depart="216.00" departLane="E27_0" departPos="5.10" departSpeed="0.00" departDelay="0.00" arrival="243.00" arrivalLane="E28_0" arrivalPos="113.72" arrivalSpeed="13.65" duration="27.00" routeLength="319.81" waitingTime="0.00" waitingCount="0" stopTime="0.00" timeLoss="4.19" rerouteNo="1" devices="tripinfo_flow_e3_to_e4.0 routing_flow_e3_to_e4.0" vType="car" speedFactor="1.02" vaporized=""/>
    <tripinfo id="flow_p8_to_e3.0" depart="64.00" departLane="-E9_0" departPos="5.10" departSpeed="0.00" departDelay="0.00" arrival="245.00" arrivalLane="E26_0" arrivalPos="197.78" arrivalSpeed="11.82" duration="181.00" routeLength="1025.41" waitingTime="93.00" waitingCount="3" stopTime="0.00" timeLoss="123.71" rerouteNo="1" devices="tripinfo_flow_p8_to_e3.0 routing_flow_p8_to_e3.0" vType="car" speedFactor="0.93" vaporized=""/>
    <tripinfo id="flow_e7_to_p1.0" depart="123.00" departLane="-204408420#4_0" departPos="5.10" departSpeed="0.00" departDelay="0.00" arrival="260.00" arrivalLane="E2_0" arrivalPos="0.20" arrivalSpeed="13.55" duration="137.00" routeLength="905.83" waitingTime="63.00" waitingCount="2" stopTime="0.00" timeLoss="96.95" rerouteNo="1" devices="tripinfo_flow_e7_to_p1.0 routing_flow_e7_to_p1.0" vType="car" speedFactor="0.99" vaporized=""/>
    <tripinfo id="flow_e3_to_e4.1" depart="245.00" departLane="E27_0" departPos="5.10" departSpeed="0.00" departDelay="1.00" arrival="271.00" arrivalLane="E28_0" arrivalPos="113.72" arrivalSpeed="14.64" duration="26.00" routeLength="319.81" waitingTime="0.00" waitingCount="0" stopTime="0.00" timeLoss="3.80" rerouteNo="1" devices="tripinfo_flow_e3_to_e4.1 routing_flow_e3_to_e4.1" vType="car" speedFactor="1.08" vaporized=""/>
    <tripinfo id="flow_e5_to_e3.1" depart="220.00" departLane="728427983#1_0" departPos="3.32" departSpeed="0.00" departDelay="0.00" arrival="279.00" arrivalLane="E26_0" arrivalPos="197.78" arrivalSpeed="13.25" duration="59.00" routeLength="810.61" waitingTime="0.00" waitingCount="0" stopTime="0.00" timeLoss="14.83" rerouteNo="1" devices="tripinfo_flow_e5_to_e3.1 routing_flow_e5_to_e3.1" vType="car" speedFactor="1.00" vaporized=""/>
    <tripinfo id="flow_e4_to_p1.1" depart="234.00" departLane="-E22_0" departPos="5.10" departSpeed="0.00" departDelay="0.00" arrival="281.00" arrivalLane="E2_0" arrivalPos="0.20" arrivalSpeed="11.81" duration="47.00" routeLength="573.92" waitingTime="0.00" waitingCount="0" stopTime="0.00" timeLoss="8.87" rerouteNo="1" devices="tripinfo_flow_e4_to_p1.1 routing_flow_e4_to_p1.1" vType="car" speedFactor="0.90" vaporized=""/>
    <tripinfo id="flow_e7_to_e1.0" depart="99.00" departLane="-204408420#4_0" departPos="5.10" departSpeed="0.00" departDelay="0.00" arrival="283.00" arrivalLane="-374632640#13_0" arrivalPos="41.70" arrivalSpeed="17.29" duration="184.00" routeLength="1116.94" waitingTime="101.00" waitingCount="3" stopTime="0.00" timeLoss="129.99" rerouteNo="1" devices="tripinfo_flow_e7_to_e1.0 routing_flow_e7_to_e1.0" vType="car" speedFactor="0.83" vaporized=""/>
    <tripinfo id="flow_e1_to_p3.0" depart="188.00" departLane="374632640#13_0" departPos="5.10" departSpeed="0.00" departDelay="2.00" arrival="287.00" arrivalLane="E31_0" arrivalPos="17.51" arrivalSpeed="11.16" duration="99.00" routeLength="428.45" waitingTime="45.00" waitingCount="2" stopTime="0.00" timeLoss="74.97" rerouteNo="1" devices="tripinfo_flow_e1_to_p3.0 routing_flow_e1_to_p3.0" vType="car" speedFactor="0.85" vaporized=""/>
    <tripinfo id="flow_e3_to_e1.0" depart="243.00" departLane="E20_0" departPos="5.10" departSpeed="0.00" departDelay="0.00" arrival="288.00" arrivalLane="-374632640#13_0" arrivalPos="41.70" arrivalSpeed="22.21" duration="45.00" routeLength="587.94" waitingTime="0.00" waitingCount="0" stopTime="0.00" timeLoss="14.66" rerouteNo="1" devices="tripinfo_flow_e3_to_e1.0 routing_flow_e3_to_e1.0" vType="car" speedFactor="1.02" vaporized=""/>
    <tripinfo id="flow_e3_to_e1.1" depart="249.00" departLane="E20_0" departPos="5.10" departSpeed="0.00" departDelay="0.00" arrival="292.00" arrivalLane="-374632640#13_0" arrivalPos="41.70" arrivalSpeed="20.43" duration="43.00" routeLength="587.94" waitingTime="0.00" waitingCount="0" stopTime="0.00" timeLoss="12.13" rerouteNo="1" devices="tripinfo_flow_e3_to_e1.1 routing_flow_e3_to_e1.1" vType="car" speedFactor="1.02" vaporized=""/>
    <tripinfo id="flow_e6_to_e5.0" depart="254.00" departLane="28302398#1_0" departPos="5.10" departSpeed="0.00" departDelay="0.00" arrival="293.00" arrivalLane="179084398#0_2" arrivalPos="7.13" arrivalSpeed="20.81" duration="39.00" routeLength="473.10" waitingTime="0.00" waitingCount="0" stopTime="0.00" timeLoss="16.30" rerouteNo="1" devices="tripinfo_flow_e6_to_e5.0 routing_flow_e6_to_e5.0" vType="car" speedFactor="0.99" vaporized=""/>
    <tripinfo id="flow_e2_to_p3.0" depart="254.00" departLane="728058747#0_0" departPos="5.10" departSpeed="0.00" departDelay="0.00" arrival="299.00" arrivalLane="E31_0" arrivalPos="17.51" arrivalSpeed="12.50" duration="45.00" routeLength="521.10" waitingTime="0.00" waitingCount="0" stopTime="0.00" timeLoss="20.22" rerouteNo="1" devices="tripinfo_flow_e2_to_p3.0 routing_flow_e2_to_p3.0" vType="car" speedFactor="0.94" vaporized=""/>
    <tripinfo id="flow_e8_to_e6.1" depart="102.00" departLane="E24_0" departPos="3.67" departSpeed="0.00" departDelay="2.00" arrival="301.00" arrivalLane="-28302398#1_1" arrivalPos="7.86" arrivalSpeed="19.81" duration="199.00" routeLength="1127.45" waitingTime="113.00" waitingCount="2" stopTime="0.00" timeLoss="148.12" rerouteNo="1" devices="tripinfo_flow_e8_to_e6.1 routing_flow_e8_to_e6.1" vType="car" speedFactor="0.92" vaporized=""/>
    <tripinfo id="flow_e8_to_e4.0" depart="86.00" departLane="E24_0" departPos="3.67" departSpeed="0.00" departDelay="0.00" arrival="306.00" arrivalLane="E22_0" arrivalPos="22.13" arrivalSpeed="13.91" duration="220.00" routeLength="1456.70" waitingTime="113.00" waitingCount="2" stopTime="0.00" timeLoss="149.04" rerouteNo="1" devices="tripinfo_flow_e8_to_e4.0 routing_flow_e8_to_e4.0" vType="car" speedFactor="1.02" vaporized=""/>
    <tripinfo id="flow_e7_to_e8.2" depart="226.00" departLane="-204408420#4_0" departPos="5.10" departSpeed="0.00" departDelay="0.00" arrival="309.00" arrivalLane="E25_0" arrivalPos="0.86" arrivalSpeed="12.78" duration="83.00" routeLength="829.72" waitingTime="27.00" waitingCount="1" stopTime="0.00" timeLoss="50.95" rerouteNo="1" devices="tripinfo_flow_e7_to_e8.2 routing_flow_e7_to_e8.2" vType="car" speedFactor="1.00" vaporized=""/>
    <tripinfo id="flow_e8_to_e6.2" depart="175.00" departLane="E24_0" departPos="3.67" departSpeed="0.00" departDelay="0.00" arrival="310.00" arrivalLane="-28302398#1_1" arrivalPos="7.86" arrivalSpeed="22.73" duration="135.00" routeLength="1127.45" waitingTime="62.00" waitingCount="1" stopTime="0.00" timeLoss="90.58" rerouteNo="1" devices="tripinfo_flow_e8_to_e6.2 routing_flow_e8_to_e6.2" vType="car" speedFactor="1.04" vaporized=""/>
    <tripinfo id="flow_e7_to_e1.1" depart="146.00" departLane="-204408420#4_0" departPos="5.10" departSpeed="0.00" departDelay="0.00" arrival="314.00" arrivalLane="-374632640#13_0" arrivalPos="41.70" arrivalSpeed="21.26" duration="168.00" routeLength="1116.94" waitingTime="85.00" waitingCount="2" stopTime="0.00" timeLoss="130.68" rerouteNo="1" devices="tripinfo_flow_e7_to_e1.1 routing_flow_e7_to_e1.1" vType="car" speedFactor="1.18" vaporized=""/>
    <tripinfo id="flow_e1_to_p9.0" depart="198.00" departLane="374632640#13_0" departPos="5.10" departSpeed="0.00" departDelay="0.00" arrival="323.00" arrivalLane="j22_0" arrivalPos="20.42" arrivalSpeed="10.47" duration="125.00" routeLength="633.99" waitingTime="49.00" waitingCount="3" stopTime="0.00" timeLoss="89.54" rerouteNo="1" devices="tripinfo_flow_e1_to_p9.0 routing_flow_e1_to_p9.0" vType="car" speedFactor="0.85" vaporized=""/>
    <tripinfo id="flow_e2_to_p9.0" depart="169.00" departLane="728058747#0_0" departPos="5.10" departSpeed="0.00" departDelay="0.00" arrival="325.00" arrivalLane="j22_0" arrivalPos="20.42" arrivalSpeed="11.94" duration="156.00" routeLength="726.64" waitingTime="87.00" waitingCount="3" stopTime="0.00" timeLoss="125.18" rerouteNo="1" devices="tripinfo_flow_e2_to_p9.0 routing_flow_e2_to_p9.0" vType="car" speedFactor="1.04" vaporized=""/>
    <tripinfo id="flow_e7_to_e1.2" depart="176.00" departLane="-204408420#4_0" departPos="5.10" departSpeed="0.00" departDelay="0.00" arrival="325.00" arrivalLane="-374632640#13_0" arrivalPos="41.70" arrivalSpeed="22.62" duration="149.00" routeLength="1038.14" waitingTime="63.00" waitingCount="3" stopTime="0.00" timeLoss="107.72" rerouteNo="1" devices="tripinfo_flow_e7_to_e1.2 routing_flow_e7_to_e1.2" vType="car" speedFactor="1.09" vaporized=""/>
    <tripinfo id="flow_e6_to_e1.0" depart="235.00" departLane="28302398#1_0" departPos="5.10" departSpeed="0.00" departDelay="0.00" arrival="326.00" arrivalLane="-374632640#13_1" arrivalPos="41.70" arrivalSpeed="23.35" duration="91.00" routeLength="667.51" waitingTime="29.00" waitingCount="2" stopTime="0.00" timeLoss="64.05" rerouteNo="1" devices="tripinfo_flow_e6_to_e1.0 routing_flow_e6_to_e1.0" vType="car" speedFactor="1.14" vaporized=""/>
    <tripinfo id="flow_e4_to_e2.1" depart="243.00" departLane="-E22_0" departPos="5.10" departSpeed="0.00" departDelay="0.00" arrival="326.00" arrivalLane="E23_1" arrivalPos="39.08" arrivalSpeed="13.08" duration="83.00" routeLength="839.58" waitingTime="17.00" waitingCount="1" stopTime="0.00" timeLoss="35.03" rerouteNo="1" devices="tripinfo_flow_e4_to_e2.1 routing_flow_e4_to_e2.1" vType="car" speedFactor="0.97" vaporized=""/>
    <tripinfo id="flow_e1_to_e8.1" depart="182.00" departLane="374632640#13_0" departPos="5.10" departSpeed="0.00" departDelay="0.00" arrival="328.00" arrivalLane="E25_0" arrivalPos="0.86" arrivalSpeed="13.83" duration="146.00" routeLength="830.49" waitingTime="76.00" waitingCount="4" stopTime="0.00" timeLoss="112.93" rerouteNo="1" devices="tripinfo_flow_e1_to_e8.1 routing_flow_e1_to_e8.1" vType="car" speedFactor="1.00" vaporized=""/>
    <tripinfo id="flow_e4_to_e3.2" depart="297.00" departLane="-E22_0" departPos="5.10" departSpeed="0.00" departDelay="0.00" arrival="333.00" arrivalLane="E30_1" arrivalPos="196.31" arrivalSpeed="13.27" duration="36.00" routeLength="347.50" waitingTime="1.00" waitingCount="1" stopTime="0.00" timeLoss="9.51" rerouteNo="1" devices="tripinfo_flow_e4_to_e3.2 routing_flow_e4_to_e3.2" vType="car" speedFactor="0.98" vaporized=""/>
    <tripinfo id="flow_e5_to_p1.0" depart="313.00" departLane="728427983#1_0" departPos="3.32" departSpeed="0.00" departDelay="0.00" arrival="335.00" arrivalLane="E2_0" arrivalPos="0.20" arrivalSpeed="14.68" duration="22.00" routeLength="273.03" waitingTime="0.00" waitingCount="0" stopTime="0.00" timeLoss="9.48" rerouteNo="1" devices="tripinfo_flow_e5_to_p1.0 routing_flow_e5_to_p1.0" vType="car" speedFactor="1.09" vaporized=""/>
    <tripinfo id="flow_e8_to_e5.0" depart="203.00" departLane="E24_0" departPos="3.67" departSpeed="0.00" departDelay="0.00" arrival="336.00" arrivalLane="179084398#0_0" arrivalPos="7.13" arrivalSpeed="11.17" duration="133.00" routeLength="1267.85" waitingTime="49.00" waitingCount="2" stopTime="0.00" timeLoss="89.24" rerouteNo="1" devices="tripinfo_flow_e8_to_e5.0 routing_flow_e8_to_e5.0" vType="car" speedFactor="1.17" vaporized=""/>
    <tripinfo id="flow_e8_to_e3.0" depart="163.00" departLane="E24_0" departPos="3.67" departSpeed="0.00" departDelay="0.00" arrival="337.00" arrivalLane="E26_1" arrivalPos="197.78" arrivalSpeed="13.00" duration="174.00" routeLength="1190.50" waitingTime="82.00" waitingCount="3" stopTime="0.00" timeLoss="119.19" rerouteNo="1" devices="tripinfo_flow_e8_to_e3.0 routing_flow_e8_to_e3.0" vType="car" speedFactor="0.96" vaporized=""/>
    <tripinfo id="flow_e8_to_e3.1" depart="183.00" departLane="E24_0" departPos="3.67" departSpeed="0.00" departDelay="0.00" arrival="337.00" arrivalLane="E26_0" arrivalPos="197.78" arrivalSpeed="12.03" duration="154.00" routeLength="1190.50" waitingTime="59.00" waitingCount="3" stopTime="0.00" timeLoss="94.97" rerouteNo="1" devices="tripinfo_flow_e8_to_e3.1 routing_flow_e8_to_e3.1" vType="car" speedFactor="0.90" vaporized=""/>
    <tripinfo id="flow_e7_to_e5.1" depart="278.00" departLane="-204408420#4_0" departPos="5.10" departSpeed="0.00" departDelay="0.00" arrival="346.00" arrivalLane="179084398#0_2" arrivalPos="7.13" arrivalSpeed="22.62" duration="68.00" routeLength="843.73" waitingTime="0.00" waitingCount="0" stopTime="0.00" timeLoss="32.07" rerouteNo="1" devices="tripinfo_flow_e7_to_e5.1 routing_flow_e7_to_e5.1" vType="car" speedFactor="1.02" vaporized=""/>
    <tripinfo id="flow_e4_to_e5.0" depart="318.00" departLane="-E22_0" departPos="5.10" departSpeed="0.00" departDelay="0.00" arrival="359.00" arrivalLane="179084398#0_0" arrivalPos="7.13" arrivalSpeed="9.67" duration="41.00" routeLength="479.99" waitingTime="0.00" waitingCount="0" stopTime="0.00" timeLoss="13.48" rerouteNo="1" devices="tripinfo_flow_e4_to_e5.0 routing_flow_e4_to_e5.0" vType="car" speedFactor="1.03" vaporized=""/>