<?xml version="1.0" encoding="UTF-8"?>

<!-- generated on 2026-06-27T16:28:53.776653+09:00 by Eclipse SUMO sumo 1.26.0
<sumoConfiguration xmlns:xsi="http://www.w3.org/2001/XMLSchema-instance" xsi:noNamespaceSchemaLocation="http://sumo.dlr.de/xsd/sumoConfiguration.xsd">

    <input>
        <net-file value="./tenjin_bottom_merge.net.xml"/>
        <route-files value="./traffic.rou.xml"/>
        <junction-taz value="true"/>
    </input>

    <output>
        <tripinfo-output value="./tripinfo.xml"/>
    </output>

    <time>
        <begin value="0"/>
        <end value="10800"/>
    </time>

    <traci_server>
        <remote-port value="64466"/>
    </traci_server>

    <gui_only>
        <start value="true"/>
    </gui_only>

</sumoConfiguration>
-->

<tripinfos xmlns:xsi="http://www.w3.org/2001/XMLSchema-instance" xsi:noNamespaceSchemaLocation="http://sumo.dlr.de/xsd/tripinfo_file.xsd">
    <tripinfo id="flow_e1_to_e2.0" depart="11.00" departLane="374632640#13_0" departPos="5.10" departSpeed="0.00" departDelay="0.00" arrival="33.00" arrivalLane="E23_0" arrivalPos="39.08" arrivalSpeed="12.88" duration="22.00" routeLength="187.70" waitingTime="0.00" waitingCount="0" stopTime="0.00" timeLoss="8.39" rerouteNo="1" devices="tripinfo_flow_e1_to_e2.0 routing_flow_e1_to_e2.0" vType="car" speedFactor="1.01" vaporized=""/>
    <tripinfo id="flow_e4_to_e3.0" depart="12.00" departLane="-E22_0" departPos="5.10" departSpeed="0.00" departDelay="0.00" arrival="41.00" arrivalLane="E30_1" arrivalPos="196.31" arrivalSpeed="13.80" duration="29.00" routeLength="347.50" waitingTime="0.00" waitingCount="0" stopTime="0.00" timeLoss="4.44" rerouteNo="1" devices="tripinfo_flow_e4_to_e3.0 routing_flow_e4_to_e3.0" vType="car" speedFactor="1.08" vaporized=""/>
    <tripinfo id="flow_e2_to_e3.0" depart="18.00" departLane="728058747#0_0" departPos="5.10" departSpeed="0.00" departDelay="0.00" arrival="73.00" arrivalLane="E26_0" arrivalPos="197.78" arrivalSpeed="13.78" duration="55.00" routeLength="411.22" waitingTime="17.00" waitingCount="1" stopTime="0.00" timeLoss="29.07" rerouteNo="1" devices="tripinfo_flow_e2_to_e3.0 routing_flow_e2_to_e3.0" vType="car" speedFactor="1.03" vaporized=""/>
    <tripinfo id="flow_e4_to_e3.1" depart="43.00" departLane="-E22_0" departPos="5.10" departSpeed="0.00" departDelay="0.00" arrival="76.00" arrivalLane="E30_0" arrivalPos="196.31" arrivalSpeed="12.13" duration="33.00" routeLength="347.50" waitingTime="0.00" waitingCount="0" stopTime="0.00" timeLoss="4.69" rerouteNo="1" devices="tripinfo_flow_e4_to_e3.1 routing_flow_e4_to_e3.1" vType="car" speedFactor="0.94" vaporized=""/>
    <tripinfo id="flow_e5_to_e3.0" depart="53.00" departLane="728427983#1_0" departPos="3.32" departSpeed="0.00" departDelay="0.00" arrival="108.00" arrivalLane="E26_0" arrivalPos="197.78" arrivalSpeed="14.70" duration="55.00" routeLength="810.60" waitingTime="0.00" waitingCount="0" stopTime="0.00" timeLoss="15.04" rerouteNo="1" devices="tripinfo_flow_e5_to_e3.0 routing_flow_e5_to_e3.0" vType="car" speedFactor="1.12" vaporized=""/>
    <tripinfo id="flow_p2_to_e4.0" depart="59.00" departLane="E1_0" departPos="1.89" departSpeed="0.00" departDelay="0.00" arrival="109.00" arrivalLane="E22_0" arrivalPos="22.13" arrivalSpeed="13.61" duration="50.00" routeLength="609.46" waitingTime="0.00" waitingCount="0" stopTime="0.00" timeLoss="12.53" rerouteNo="1" devices="tripinfo_flow_p2_to_e4.0 routing_flow_p2_to_e4.0" vType="car" speedFactor="0.99" vaporized=""/>
    <tripinfo id="flow_p12_to_e5.0" depart="48.00" departLane="-E0_0" departPos="5.10" departSpeed="0.00" departDelay="0.00" arrival="110.00" arrivalLane="179084398#0_2" arrivalPos="7.13" arrivalSpeed="22.19" duration="62.00" routeLength="442.83" waitingTime="18.00" waitingCount="1" stopTime="0.00" timeLoss="39.31" rerouteNo="1" devices="tripinfo_flow_p12_to_e5.0 routing_flow_p12_to_e5.0" vType="car" speedFactor="1.03" vaporized=""/>
    <tripinfo id="flow_e1_to_e3.0" depart="1.00" departLane="374632640#13_0" departPos="5.10" departSpeed="0.00" departDelay="0.00" arrival="119.00" arrivalLane="E26_0" arrivalPos="197.78" arrivalSpeed="13.95" duration="118.00" routeLength="564.15" waitingTime="65.00" waitingCount="2" stopTime="0.00" timeLoss="88.14" rerouteNo="1" devices="tripinfo_flow_e1_to_e3.0 routing_flow_e1_to_e3.0" vType="car" speedFactor="1.06" vaporized=""/>
    <tripinfo id="flow_e8_to_e2.0" depart="50.00" departLane="E24_0" departPos="3.67" departSpeed="0.00" departDelay="0.00" arrival="120.00" arrivalLane="E23_0" arrivalPos="39.08" arrivalSpeed="13.82" duration="70.00" routeLength="907.87" waitingTime="13.00" waitingCount="1" stopTime="0.00" timeLoss="34.45" rerouteNo="1" devices="tripinfo_flow_e8_to_e2.0 routing_flow_e8_to_e2.0" vType="car" speedFactor="1.05" vaporized=""/>
    <tripinfo id="flow_e7_to_e8.0" depart="37.00" departLane="-204408420#4_0" departPos="5.10" departSpeed="0.00" departDelay="0.00" arrival="131.00" arrivalLane="E25_1" arrivalPos="0.86" arrivalSpeed="14.07" duration="94.00" routeLength="829.20" waitingTime="37.00" waitingCount="1" stopTime="0.00" timeLoss="62.84" rerouteNo="1" devices="tripinfo_flow_e7_to_e8.0 routing_flow_e7_to_e8.0" vType="car" speedFactor="1.05" vaporized=""/>
    <tripinfo id="flow_e7_to_e8.1" depart="66.00" departLane="-204408420#4_0" departPos="5.10" departSpeed="0.00" departDelay="0.00" arrival="131.00" arrivalLane="E25_0" arrivalPos="0.86" arrivalSpeed="11.00" duration="65.00" routeLength="829.20" waitingTime="7.00" waitingCount="1" stopTime="0.00" timeLoss="27.80" rerouteNo="1" devices="tripinfo_flow_e7_to_e8.1 routing_flow_e7_to_e8.1" vType="car" speedFactor="0.88" vaporized=""/>
    <tripinfo id="flow_e3_to_e6.0" depart="45.00" departLane="E20_0" departPos="5.10" departSpeed="0.00" departDelay="0.00" arrival="139.00" arrivalLane="-28302398#1_0" arrivalPos="7.86" arrivalSpeed="18.78" duration="94.00" routeLength="1009.26" waitingTime="13.00" waitingCount="1" stopTime="0.00" timeLoss="34.88" rerouteNo="1" devices="tripinfo_flow_e3_to_e6.0 routing_flow_e3_to_e6.0" vType="car" speedFactor="0.86" vaporized=""/>
    <tripinfo id="flow_e5_to_e7.0" depart="38.00" departLane="728427983#1_0" departPos="3.32" departSpeed="0.00" departDelay="0.00" arrival="141.00" arrivalLane="204408420#4_0" arrivalPos="97.04" arrivalSpeed="23.93" duration="103.00" routeLength="825.07" waitingTime="35.00" waitingCount="1" stopTime="0.00" timeLoss="62.68" rerouteNo="1" devices="tripinfo_flow_e5_to_e7.0 routing_flow_e5_to_e7.0" vType="car" speedFactor="0.89" vaporized=""/>
    <tripinfo id="flow_e4_to_e7.0" depart="48.00" departLane="-E22_0" departPos="5.10" departSpeed="0.00" departDelay="0.00" arrival="143.00" arrivalLane="204408420#4_0" arrivalPos="97.04" arrivalSpeed="27.21" duration="95.00" routeLength="1140.46" waitingTime="16.00" waitingCount="1" stopTime="0.00" timeLoss="44.25" rerouteNo="1" devices="tripinfo_flow_e4_to_e7.0 routing_flow_e4_to_e7.0" vType="car" speedFactor="1.09" vaporized=""/>
    <tripinfo id="flow_e4_to_p1.0" depart="106.00" departLane="-E22_0" departPos="5.10" departSpeed="0.00" departDelay="0.00" arrival="146.00" arrivalLane="E2_0" arrivalPos="0.20" arrivalSpeed="16.26" duration="40.00" routeLength="573.91" waitingTime="0.00" waitingCount="0" stopTime="0.00" timeLoss="10.40" rerouteNo="1" devices="tripinfo_flow_e4_to_p1.0 routing_flow_e4_to_p1.0" vType="car" speedFactor="1.18" vaporized=""/>
    <tripinfo id="flow_e4_to_e2.0" depart="112.00" departLane="-E22_0" departPos="5.10" departSpeed="0.00" departDelay="0.00" arrival="164.00" arrivalLane="E23_1" arrivalPos="39.08" arrivalSpeed="15.22" duration="52.00" routeLength="839.57" waitingTime="0.00" waitingCount="0" stopTime="0.00" timeLoss="11.03" rerouteNo="1" devices="tripinfo_flow_e4_to_e2.0 routing_flow_e4_to_e2.0" vType="car" speedFactor="1.15" vaporized=""/>
    <tripinfo id="flow_e7_to_e5.0" depart="87.00" departLane="-204408420#4_0" departPos="5.10" departSpeed="0.00" departDelay="0.00" arrival="165.00" arrivalLane="179084398#0_2" arrivalPos="7.13" arrivalSpeed="22.13" duration="78.00" routeLength="843.73" waitingTime="11.00" waitingCount="1" stopTime="0.00" timeLoss="42.29" rerouteNo="1" devices="tripinfo_flow_e7_to_e5.0 routing_flow_e7_to_e5.0" vType="car" speedFactor="1.01" vaporized=""/>
    <tripinfo id="flow_e8_to_p5.0" depart="124.00" departLane="E24_0" departPos="3.67" departSpeed="0.00" departDelay="0.00" arrival="187.00" arrivalLane="E10_0" arrivalPos="24.83" arrivalSpeed="12.74" duration="63.00" routeLength="442.80" waitingTime="31.00" waitingCount="1" stopTime="0.00" timeLoss="45.13" rerouteNo="1" devices="tripinfo_flow_e8_to_p5.0 routing_flow_e8_to_p5.0" vType="car" speedFactor="1.02" vaporized=""/>
    <tripinfo id="flow_e5_to_e4.0" depart="151.00" departLane="728427983#1_0" departPos="3.32" departSpeed="0.00" departDelay="0.00" arrival="188.00" arrivalLane="E22_0" arrivalPos="22.13" arrivalSpeed="14.57" duration="37.00" routeLength="501.24" waitingTime="0.00" waitingCount="0" stopTime="0.00" timeLoss="9.25" rerouteNo="1" devices="tripinfo_flow_e5_to_e4.0 routing_flow_e5_to_e4.0" vType="car" speedFactor="1.10" vaporized=""/>
    <tripinfo id="flow_e5_to_e1.0" depart="112.00" departLane="728427983#1_0" departPos="3.32" departSpeed="0.00" departDelay="0.00" arrival="191.00" arrivalLane="-374632640#13_0" arrivalPos="41.70" arrivalSpeed="21.89" duration="79.00" routeLength="646.10" waitingTime="25.00" waitingCount="1" stopTime="0.00" timeLoss="48.15" rerouteNo="1" devices="tripinfo_flow_e5_to_e1.0 routing_flow_e5_to_e1.0" vType="car" speedFactor="1.01" vaporized=""/>
    <tripinfo id="flow_e4_to_e6.0" depart="145.00" departLane="-E22_0" departPos="5.10" departSpeed="0.00" departDelay="0.00" arrival="200.00" arrivalLane="-28302398#1_0" arrivalPos="7.86" arrivalSpeed="20.91" duration="55.00" routeLength="764.26" waitingTime="0.00" waitingCount="0" stopTime="0.00" timeLoss="13.74" rerouteNo="1" devices="tripinfo_flow_e4_to_e6.0 routing_flow_e4_to_e6.0" vType="car" speedFactor="0.97" vaporized=""/>
    <tripinfo id="flow_p6_to_e5.0" depart="68.00" departLane="E11_0" departPos="5.10" departSpeed="0.00" departDelay="0.00" arrival="201.00" arrivalLane="179084398#0_2" arrivalPos="7.13" arrivalSpeed="20.49" duration="133.00" routeLength="700.82" waitingTime="67.00" waitingCount="1" stopTime="0.00" timeLoss="95.51" rerouteNo="1" devices="tripinfo_flow_p6_to_e5.0 routing_flow_p6_to_e5.0" vType="car" speedFactor="0.94" vaporized=""/>
    <tripinfo id="flow_e1_to_e7.0" depart="7.00" departLane="374632640#13_0" departPos="5.10" departSpeed="0.00" departDelay="0.00" arrival="203.00" arrivalLane="204408420#4_0" arrivalPos="97.04" arrivalSpeed="24.77" duration="196.00" routeLength="1105.85" waitingTime="110.00" waitingCount="4" stopTime="0.00" timeLoss="149.70" rerouteNo="1" devices="tripinfo_flow_e1_to_e7.0 routing_flow_e1_to_e7.0" vType="car" speedFactor="0.94" vaporized=""/>
    <tripinfo id="flow_e4_to_p7.0" depart="92.00" departLane="-E22_0" departPos="5.10" departSpeed="0.00" departDelay="0.00" arrival="206.00" arrivalLane="E32_0" arrivalPos="22.25" arrivalSpeed="11.15" duration="114.00" routeLength="995.51" waitingTime="38.00" waitingCount="1" stopTime="0.00" timeLoss="59.11" rerouteNo="1" devices="tripinfo_flow_e4_to_p7.0 routing_flow_e4_to_p7.0" vType="car" speedFactor="0.97" vaporized=""/>
    <tripinfo id="flow_p8_to_e2.0" depart="100.00" departLane="-E9_0" departPos="5.10" departSpeed="0.00" departDelay="0.00" arrival="207.00" arrivalLane="E23_0" arrivalPos="39.08" arrivalSpeed="11.90" duration="107.00" routeLength="742.78" waitingTime="34.00" waitingCount="3" stopTime="0.00" timeLoss="68.53" rerouteNo="1" devices="tripinfo_flow_p8_to_e2.0 routing_flow_p8_to_e2.0" vType="car" speedFactor="0.95" vaporized=""/>
    <tripinfo id="flow_e8_to_e1.0" depart="99.00" departLane="E24_0" departPos="3.67" departSpeed="0.00" departDelay="0.00" arrival="209.00" arrivalLane="-374632640#13_0" arrivalPos="41.70" arrivalSpeed="18.49" duration="110.00" routeLength="818.42" waitingTime="46.00" waitingCount="2" stopTime="0.00" timeLoss="73.56" rerouteNo="1" devices="tripinfo_flow_e8_to_e1.0 routing_flow_e8_to_e1.0" vType="car" speedFactor="0.87" vaporized=""/>
    <tripinfo id="flow_p10_to_e6.0" depart="72.00" departLane="-E8_0" departPos="5.10" departSpeed="0.00" departDelay="0.00" arrival="211.00" arrivalLane="-28302398#1_1" arrivalPos="7.86" arrivalSpeed="20.47" duration="139.00" routeLength="737.85" waitingTime="72.00" waitingCount="2" stopTime="0.00" timeLoss="102.11" rerouteNo="1" devices="tripinfo_flow_p10_to_e6.0 routing_flow_p10_to_e6.0" vType="car" speedFactor="0.94" vaporized=""/>
    <tripinfo id="flow_e4_to_e6.1" depart="152.00" departLane="-E22_0" departPos="5.10" departSpeed="0.00" departDelay="0.00" arrival="211.00" arrivalLane="-28302398#1_0" arrivalPos="7.86" arrivalSpeed="18.79" duration="59.00" routeLength="764.26" waitingTime="0.00" waitingCount="0" stopTime="0.00" timeLoss="14.87" rerouteNo="1" devices="tripinfo_flow_e4_to_e6.1 routing_flow_e4_to_e6.1" vType="car" speedFactor="0.90" vaporized=""/>
    <tripinfo id="flow_e1_to_e6.0" depart="102.00" departLane="374632640#13_0" departPos="5.10" departSpeed="0.00" departDelay="0.00" arrival="213.00" arrivalLane="-28302398#1_1" arrivalPos="7.86" arrivalSpeed="23.42" duration="111.00" routeLength="665.60" waitingTime="46.00" waitingCount="3" stopTime="0.00" timeLoss="83.66" rerouteNo="1" devices="tripinfo_flow_e1_to_e6.0 routing_flow_e1_to_e6.0" vType="car" speedFactor="1.13" vaporized=""/>
    <tripinfo id="flow_e6_to_e8.0" depart="105.00" departLane="28302398#1_0" departPos="5.10" departSpeed="0.00" departDelay="0.00" arrival="215.00" arrivalLane="E25_0" arrivalPos="0.86" arrivalSpeed="12.24" duration="110.00" routeLength="1107.11" waitingTime="31.00" waitingCount="1" stopTime="0.00" timeLoss="61.06" rerouteNo="1" devices="tripinfo_flow_e6_to_e8.0 routing_flow_e6_to_e8.0" vType="car" speedFactor="0.93" vaporized=""/>
    <tripinfo id="flow_p8_to_e3.0" depart="64.00" departLane="-E9_0" departPos="5.10" departSpeed="0.00" departDelay="0.00" arrival="227.00" arrivalLane="E26_1" arrivalPos="197.78" arrivalSpeed="12.49" duration="163.00" routeLength="1025.41" waitingTime="69.00" waitingCount="4" stopTime="0.00" timeLoss="106.55" rerouteNo="1" devices="tripinfo_flow_p8_to_e3.0 routing_flow_p8_to_e3.0" vType="car" speedFactor="0.93" vaporized=""/>
    <tripinfo id="flow_p8_to_e4.0" depart="31.00" departLane="-E9_0" departPos="5.10" departSpeed="0.00" departDelay="0.00" arrival="229.00" arrivalLane="E22_0" arrivalPos="22.13" arrivalSpeed="11.43" duration="198.00" routeLength="989.46" waitingTime="104.00" waitingCount="2" stopTime="0.00" timeLoss="133.16" rerouteNo="1" devices="tripinfo_flow_p8_to_e4.0 routing_flow_p8_to_e4.0" vType="car" speedFactor="0.83" vaporized=""/>
    <tripinfo id="flow_e8_to_e6.0" depart="95.00" departLane="E24_0" departPos="3.67" departSpeed="0.00" departDelay="0.00" arrival="231.00" arrivalLane="-28302398#1_1" arrivalPos="7.86" arrivalSpeed="19.61" duration="136.00" routeLength="1126.94" waitingTime="54.00" waitingCount="1" stopTime="0.00" timeLoss="83.75" rerouteNo="1" devices="tripinfo_flow_e8_to_e6.0 routing_flow_e8_to_e6.0" vType="car" speedFactor="0.89" vaporized=""/>
    <tripinfo id="flow_e6_to_e7.0" depart="164.00" departLane="28302398#1_0" departPos="5.10" departSpeed="0.00" departDelay="0.00" arrival="231.00" arrivalLane="204408420#4_0" arrivalPos="97.04" arrivalSpeed="26.13" duration="67.00" routeLength="609.95" waitingTime="22.00" waitingCount="1" stopTime="0.00" timeLoss="43.92" rerouteNo="1" devices="tripinfo_flow_e6_to_e7.0 routing_flow_e6_to_e7.0" vType="car" speedFactor="1.09" vaporized=""/>
    <tripinfo id="flow_p2_to_e1.0" depart="118.00" departLane="E1_0" departPos="1.89" departSpeed="0.00" departDelay="0.00" arrival="236.00" arrivalLane="-374632640#13_1" arrivalPos="41.70" arrivalSpeed="23.56" duration="118.00" routeLength="841.95" waitingTime="44.00" waitingCount="3" stopTime="0.00" timeLoss="83.84" rerouteNo="1" devices="tripinfo_flow_p2_to_e1.0 routing_flow_p2_to_e1.0" vType="car" speedFactor="1.17" vaporized=""/>
    <tripinfo id="flow_e1_to_e8.0" depart="74.00" departLane="374632640#13_0" departPos="5.10" departSpeed="0.00" departDelay="0.00" arrival="237.00" arrivalLane="E25_0" arrivalPos="0.86" arrivalSpeed="15.60" duration="163.00" routeLength="830.49" waitingTime="95.00" waitingCount="3" stopTime="0.00" timeLoss="134.57" rerouteNo="1" devices="tripinfo_flow_e1_to_e8.0 routing_flow_e1_to_e8.0" vType="car" speedFactor="1.16" vaporized=""/>
    <tripinfo id="flow_e7_to_e6.0" depart="159.00" departLane="-204408420#4_0" departPos="5.10" departSpeed="0.00" departDelay="0.00" arrival="238.00" arrivalLane="-28302398#1_1" arrivalPos="7.86" arrivalSpeed="21.88" duration="79.00" routeLength="621.17" waitingTime="27.00" waitingCount="2" stopTime="0.00" timeLoss="54.01" rerouteNo="1" devices="tripinfo_flow_e7_to_e6.0 routing_flow_e7_to_e6.0" vType="car" speedFactor="1.03" vaporized=""/>
    <tripinfo id="flow_e3_to_e4.0" depart="216.00" departLane="E27_0" departPos="5.10" departSpeed="0.00" departDelay="0.00" arrival="243.00" arrivalLane="E28_0" arrivalPos="113.72" arrivalSpeed="13.45" duration="27.00" routeLength="319.81" waitingTime="0.00" waitingCount="0" stopTime="0.00" timeLoss="3.81" rerouteNo="1" devices="tripinfo_flow_e3_to_e4.0 routing_flow_e3_to_e4.0" vType="car" speedFactor="1.02" vaporized=""/>
    <tripinfo id="flow_e7_to_p1.0" depart="123.00" departLane="-204408420#4_0" departPos="5.10" departSpeed="0.00" departDelay="0.00" arrival="260.00" arrivalLane="E2_0" arrivalPos="0.20" arrivalSpeed="13.39" duration="137.00" routeLength="905.82" waitingTime="62.00" waitingCount="2" stopTime="0.00" timeLoss="97.32" rerouteNo="1" devices="tripinfo_flow_e7_to_p1.0 routing_flow_e7_to_p1.0" vType="car" speedFactor="0.99" vaporized=""/>
    <tripinfo id="flow_e3_to_e4.1" depart="244.00" departLane="E27_0" departPos="5.10" departSpeed="0.00" departDelay="0.00" arrival="270.00" arrivalLane="E28_0" arrivalPos="113.72" arrivalSpeed="14.63" duration="26.00" routeLength="319.81" waitingTime="0.00" waitingCount="0" stopTime="0.00" timeLoss="4.15" rerouteNo="1" devices="tripinfo_flow_e3_to_e4.1 routing_flow_e3_to_e4.1" vType="car" speedFactor="1.08" vaporized=""/>
    <tripinfo id="flow_e5_to_e3.1" depart="220.00" departLane="728427983#1_0" departPos="3.32" departSpeed="0.00" departDelay="0.00" arrival="277.00" arrivalLane="E26_0" arrivalPos="197.78" arrivalSpeed="13.88" duration="57.00" routeLength="810.60" waitingTime="0.00" waitingCount="0" stopTime="0.00" timeLoss="12.51" rerouteNo="1" devices="tripinfo_flow_e5_to_e3.1 routing_flow_e5_to_e3.1" vType="car" speedFactor="1.00" vaporized=""/>
    <tripinfo id="flow_e4_to_p1.1" depart="234.00" departLane="-E22_0" departPos="5.10" departSpeed="0.00" departDelay="0.00" arrival="282.00" arrivalLane="E2_0" arrivalPos="0.20" arrivalSpeed="11.89" duration="48.00" routeLength="573.91" waitingTime="0.00" waitingCount="0" stopTime="0.00" timeLoss="9.83" rerouteNo="1" devices="tripinfo_flow_e4_to_p1.1 routing_flow_e4_to_p1.1" vType="car" speedFactor="0.90" vaporized=""/>
    <tripinfo id="flow_e1_to_p3.0" depart="188.00" departLane="374632640#13_0" departPos="5.10" departSpeed="0.00" departDelay="2.00" arrival="285.00" arrivalLane="E31_0" arrivalPos="17.51" arrivalSpeed="11.11" duration="97.00" routeLength="428.45" waitingTime="43.00" waitingCount="2" stopTime="0.00" timeLoss="72.67" rerouteNo="1" devices="tripinfo_flow_e1_to_p3.0 routing_flow_e1_to_p3.0" vType="car" speedFactor="0.85" vaporized=""/>
    <tripinfo id="flow_e3_to_e1.0" depart="243.00" departLane="E20_0" departPos="5.10" departSpeed="0.00" departDelay="0.00" arrival="287.00" arrivalLane="-374632640#13_0" arrivalPos="41.70" arrivalSpeed="21.50" duration="44.00" routeLength="587.94" waitingTime="0.00" waitingCount="0" stopTime="0.00" timeLoss="13.36" rerouteNo="1" devices="tripinfo_flow_e3_to_e1.0 routing_flow_e3_to_e1.0" vType="car" speedFactor="1.02" vaporized=""/>
    <tripinfo id="flow_e7_to_e1.1" depart="146.00" departLane="-204408420#4_0" departPos="5.10" departSpeed="0.00" departDelay="0.00" arrival="293.00" arrivalLane="-374632640#13_0" arrivalPos="41.70" arrivalSpeed="20.76" duration="147.00" routeLength="1116.42" waitingTime="57.00" waitingCount="3" stopTime="0.00" timeLoss="109.72" rerouteNo="1" devices="tripinfo_flow_e7_to_e1.1 routing_flow_e7_to_e1.1" vType="car" speedFactor="1.18" vaporized=""/>
    <tripinfo id="flow_e6_to_e5.0" depart="254.00" departLane="28302398#1_0" departPos="5.10" departSpeed="0.00" departDelay="0.00" arrival="295.00" arrivalLane="179084398#0_2" arrivalPos="7.13" arrivalSpeed="21.11" duration="41.00" routeLength="473.10" waitingTime="0.00" waitingCount="0" stopTime="0.00" timeLoss="18.41" rerouteNo="1" devices="tripinfo_flow_e6_to_e5.0 routing_flow_e6_to_e5.0" vType="car" speedFactor="0.99" vaporized=""/>
    <tripinfo id="flow_e7_to_e1.0" depart="99.00" departLane="-204408420#4_0" departPos="5.10" departSpeed="0.00" departDelay="0.00" arrival="297.00" arrivalLane="-374632640#13_0" arrivalPos="41.70" arrivalSpeed="17.51" duration="198.00" routeLength="1116.42" waitingTime="108.00" waitingCount="3" stopTime="0.00" timeLoss="144.89" rerouteNo="1" devices="tripinfo_flow_e7_to_e1.0 routing_flow_e7_to_e1.0" vType="car" speedFactor="0.83" vaporized=""/>
    <tripinfo id="flow_e2_to_p3.0" depart="254.00" departLane="728058747#0_0" departPos="5.10" departSpeed="0.00" departDelay="0.00" arrival="298.00" arrivalLane="E31_0" arrivalPos="17.51" arrivalSpeed="12.95" duration="44.00" routeLength="521.10" waitingTime="0.00" waitingCount="0" stopTime="0.00" timeLoss="19.90" rerouteNo="1" devices="tripinfo_flow_e2_to_p3.0 routing_flow_e2_to_p3.0" vType="car" speedFactor="0.94" vaporized=""/>
    <tripinfo id="flow_e3_to_e1.1" depart="249.00" departLane="E20_0" departPos="5.10" departSpeed="0.00" departDelay="0.00" arrival="299.00" arrivalLane="-374632640#13_0" arrivalPos="41.70" arrivalSpeed="21.31" duration="50.00" routeLength="587.94" waitingTime="5.00" waitingCount="1" stopTime="0.00" timeLoss="18.48" rerouteNo="1" devices="tripinfo_flow_e3_to_e1.1 routing_flow_e3_to_e1.1" vType="car" speedFactor="1.02" vaporized=""/>
    <tripinfo id="flow_e8_to_e6.1" depart="102.00" departLane="E24_0" departPos="3.67" departSpeed="0.00" departDelay="2.00" arrival="301.00" arrivalLane="-28302398#1_1" arrivalPos="7.86" arrivalSpeed="19.81" duration="199.00" routeLength="1126.94" waitingTime="110.00" waitingCount="2" stopTime="0.00" timeLoss="148.38" rerouteNo="1" devices="tripinfo_flow_e8_to_e6.1 routing_flow_e8_to_e6.1" vType="car" speedFactor="0.92" vaporized=""/>
    <tripinfo id="flow_e8_to_e4.0" depart="86.00" departLane="E24_0" departPos="3.67" departSpeed="0.00" departDelay="0.00" arrival="307.00" arrivalLane="E22_0" arrivalPos="22.13" arrivalSpeed="13.98" duration="221.00" routeLength="1455.67" waitingTime="112.00" waitingCount="2" stopTime="0.00" timeLoss="149.68" rerouteNo="1" devices="tripinfo_flow_e8_to_e4.0 routing_flow_e8_to_e4.0" vType="car" speedFactor="1.02" vaporized=""/>
    <tripinfo id="flow_e7_to_e8.2" depart="226.00" departLane="-204408420#4_0" departPos="5.10" departSpeed="0.00" departDelay="0.00" arrival="308.00" arrivalLane="E25_0" arrivalPos="0.86" arrivalSpeed="12.55" duration="82.00" routeLength="829.20" waitingTime="29.00" waitingCount="1" stopTime="0.00" timeLoss="49.46" rerouteNo="1" devices="tripinfo_flow_e7_to_e8.2 routing_flow_e7_to_e8.2" vType="car" speedFactor="1.00" vaporized=""/>
    <tripinfo id="flow_e8_to_e6.2" depart="175.00" departLane="E24_0" departPos="3.67" departSpeed="0.00" departDelay="0.00" arrival="311.00" arrivalLane="-28302398#1_1" arrivalPos="7.86" arrivalSpeed="21.89" duration="136.00" routeLength="1126.94" waitingTime="62.00" waitingCount="1" stopTime="0.00" timeLoss="90.86" rerouteNo="1" devices="tripinfo_flow_e8_to_e6.2 routing_flow_e8_to_e6.2" vType="car" speedFactor="1.04" vaporized=""/>
    <tripinfo id="flow_e7_to_e8.3" depart="261.00" departLane="-204408420#4_0" departPos="5.10" departSpeed="0.00" departDelay="0.00" arrival="312.00" arrivalLane="E25_0" arrivalPos="0.86" arrivalSpeed="12.06" duration="51.00" routeLength="829.20" waitingTime="0.00" waitingCount="0" stopTime="0.00" timeLoss="15.26" rerouteNo="1" devices="tripinfo_flow_e7_to_e8.3 routing_flow_e7_to_e8.3" vType="car" speedFactor="0.91" vaporized=""/>
    <tripinfo id="flow_e8_to_e3.1" depart="183.00" departLane="E24_0" departPos="3.67" departSpeed="0.00" departDelay="0.00" arrival="319.00" arrivalLane="E26_0" arrivalPos="197.78" arrivalSpeed="11.92" duration="136.00" routeLength="1190.50" waitingTime="49.00" waitingCount="2" stopTime="0.00" timeLoss="77.15" rerouteNo="1" devices="tripinfo_flow_e8_to_e3.1 routing_flow_e8_to_e3.1" vType="car" speedFactor="0.90" vaporized=""/>
    <tripinfo id="flow_e8_to_e5.0" depart="203.00" departLane="E24_0" departPos="3.67" departSpeed="0.00" departDelay="0.00" arrival="320.00" arrivalLane="179084398#0_0" arrivalPos="7.13" arrivalSpeed="9.52" duration="117.00" routeLength="1267.85" waitingTime="38.00" waitingCount="1" stopTime="0.00" timeLoss="72.59" rerouteNo="1" devices="tripinfo_flow_e8_to_e5.0 routing_flow_e8_to_e5.0" vType="car" speedFactor="1.17" vaporized=""/>
    <tripinfo id="flow_e8_to_e3.0" depart="163.00" departLane="E24_0" departPos="3.67" departSpeed="0.00" departDelay="0.00" arrival="321.00" arrivalLane="E26_2" arrivalPos="197.78" arrivalSpeed="12.69" duration="158.00" routeLength="1190.50" waitingTime="70.00" waitingCount="2" stopTime="0.00" timeLoss="102.95" rerouteNo="1" devices="tripinfo_flow_e8_to_e3.0 routing_flow_e8_to_e3.0" vType="car" speedFactor="0.96" vaporized=""/>
    <tripinfo id="flow_e1_to_p9.0" depart="198.00" departLane="374632640#13_0" departPos="5.10" departSpeed="0.00" departDelay="0.00" arrival="323.00" arrivalLane="j22_0" arrivalPos="20.42" arrivalSpeed="10.95" duration="125.00" routeLength="633.99" waitingTime="50.00" waitingCount="3" stopTime="0.00" timeLoss="90.21" rerouteNo="1" devices="tripinfo_flow_e1_to_p9.0 routing_flow_e1_to_p9.0" vType="car" speedFactor="0.85" vaporized=""/>
    <tripinfo id="flow_e2_to_p9.0" depart="169.00" departLane="728058747#0_0" departPos="5.10" departSpeed="0.00" departDelay="0.00" arrival="326.00" arrivalLane="j22_0" arrivalPos="20.42" arrivalSpeed="12.21" duration="157.00" routeLength="726.64" waitingTime="87.00" waitingCount="3" stopTime="0.00" timeLoss="125.24" rerouteNo="1" devices="tripinfo_flow_e2_to_p9.0 routing_flow_e2_to_p9.0" vType="car" speedFactor="1.04" vaporized=""/>
    <tripinfo id="flow_e6_to_e1.0" depart="235.00" departLane="28302398#1_0" departPos="5.10" departSpeed="0.00" departDelay="0.00" arrival="326.00" arrivalLane="-374632640#13_0" arrivalPos="41.70" arrivalSpeed="23.87" duration="91.00" routeLength="667.50" waitingTime="31.00" waitingCount="2" stopTime="0.00" timeLoss="63.91" rerouteNo="1" devices="tripinfo_flow_e6_to_e1.0 routing_flow_e6_to_e1.0" vType="car" speedFactor="1.14" vaporized=""/>
    <tripinfo id="flow_e4_to_e2.1" depart="243.00" departLane="-E22_0" departPos="5.10" departSpeed="0.00" departDelay="0.00" arrival="326.00" arrivalLane="E23_1" arrivalPos="39.08" arrivalSpeed="12.84" duration="83.00" routeLength="839.57" waitingTime="16.00" waitingCount="1" stopTime="0.00" timeLoss="34.48" rerouteNo="1" devices="tripinfo_flow_e4_to_e2.1 routing_flow_e4_to_e2.1" vType="car" speedFactor="0.97" vaporized=""/>
    <tripinfo id="flow_e1_to_e8.1" depart="182.00" departLane="374632640#13_0" departPos="5.10" departSpeed="0.00" departDelay="0.00" arrival="327.00" arrivalLane="E25_0" arrivalPos="0.86" arrivalSpeed="13.42" duration="145.00" routeLength="830.49" waitingTime="79.00" waitingCount="4" stopTime="0.00" timeLoss="112.01" rerouteNo="1" devices="tripinfo_flow_e1_to_e8.1 routing_flow_e1_to_e8.1" vType="car" speedFactor="1.00" vaporized=""/>
    <tripinfo id="flow_e4_to_e3.2" depart="297.00" departLane="-E22_0" departPos="5.10" departSpeed="0.00" departDelay="0.00" arrival="334.00" arrivalLane="E30_1" arrivalPos="196.31" arrivalSpeed="13.31" duration="37.00" routeLength="347.50" waitingTime="2.00" waitingCount="1" stopTime="0.00" timeLoss="9.82" rerouteNo="1" devices="tripinfo_flow_e4_to_e3.2 routing_flow_e4_to_e3.2" vType="car" speedFactor="0.98" vaporized=""/>
    <tripinfo id="flow_e5_to_p1.0" depart="313.00" departLane="728427983#1_0" departPos="3.32" departSpeed="0.00" departDelay="0.00" arrival="335.00" arrivalLane="E2_0" arrivalPos="0.20" arrivalSpeed="14.97" duration="22.00" routeLength="273.02" waitingTime="0.00" waitingCount="0" stopTime="0.00" timeLoss="9.73" rerouteNo="1" devices="tripinfo_flow_e5_to_p1.0 routing_flow_e5_to_p1.0" vType="car" speedFactor="1.09" vaporized=""/>
    <tripinfo id="flow_e7_to_e5.1" depart="278.00" departLane="-204408420#4_0" departPos="5.10" departSpeed="0.00" departDelay="0.00" arrival="347.00" arrivalLane="179084398#0_2" arrivalPos="7.13" arrivalSpeed="21.84" duration="69.00" routeLength="843.73" waitingTime="2.00" waitingCount="1" stopTime="0.00" timeLoss="33.30" rerouteNo="1" devices="tripinfo_flow_e7_to_e5.1 routing_flow_e7_to_e5.1" vType="car" speedFactor="1.02" vaporized=""/>
    <tripinfo id="flow_e4_to_e5.0" depart="318.00" departLane="-E22_0" departPos="5.10" departSpeed="0.00" departDelay="0.00" arrival="359.00" arrivalLane="179084398#0_0" arrivalPos="7.13" arrivalSpeed="9.12" duration="41.00" routeLength="479.99" waitingTime="0.00" waitingCount="0" stopTime="0.00" timeLoss="12.83" rerouteNo="1" devices="tripinfo_flow_e4_to_e5.0 routing_flow_e4_to_e5.0" vType="car" speedFactor="1.03" vaporized=""/>